144
2

1
0.0182099897933599  0.0000000000000000  0.0082702038503128
 -1.150008     0.027463    -0.119711
  0.087436     0.006523    -0.004003
  0.002114    -0.000850    -0.000120
  0.003199    -0.000023     0.000051
  0.002061     0.000967    -0.000140
  0.083817    -0.006174    -0.003248
 -0.015031    -0.051937    -0.003303
 -0.016098     0.052194    -0.003928
  0.009018     0.002964     0.000627
  0.001876     0.003007    -0.000038
  0.001841    -0.002981    -0.000037
  0.009203    -0.003194     0.000603
 -0.003445    -0.004088    -0.000143
  0.003775    -0.000137     0.000615
 -0.003456     0.004126    -0.000118
 -0.000097    -0.001171    -0.000038
  0.003810    -0.000052     0.000062
  0.000018     0.001120    -0.000035
  0.002297    -0.000549     0.000052
 -0.000652     0.001494    -0.000036
 -0.000730    -0.001549    -0.000037
  0.002314     0.000485     0.000051
 -0.000681     0.003692    -0.000037
 -0.000703    -0.003738    -0.000036
 -0.003429    -0.002346    -0.000132
 -0.000034    -0.004121    -0.000035
  0.003809    -0.000044     0.000062
 -0.000043     0.004061    -0.000037
 -0.003472     0.002233    -0.000127
  0.003773    -0.000081     0.000615
 -0.015469    -0.065329    -0.003686
  0.009252    -0.003141     0.000610
  0.001913     0.002272    -0.000038
  0.001804    -0.002210    -0.000037
  0.008969     0.003021     0.000619
 -0.015638     0.064194    -0.003555
 -0.000732     0.000000     0.001069
  0.000095     0.000191    -0.000048
 -0.000162     0.000098     0.000002
  0.000045     0.000002    -0.000026
 -0.000156    -0.000090     0.000003
  0.000093    -0.000182    -0.000047
  0.000119    -0.000165    -0.000048
  0.000126     0.000179    -0.000048
 -0.000038    -0.000340    -0.000060
 -0.000284    -0.000076    -0.000008
 -0.000285     0.000077    -0.000007
 -0.000053     0.000334    -0.000060
  0.000007     0.000004     0.000002
  0.000128     0.000002    -0.000056
  0.000005     0.000002     0.000003
 -0.000075    -0.000191    -0.000007
  0.000049     0.000001    -0.000035
 -0.000080     0.000200    -0.000008
  0.000056     0.000006    -0.000027
 -0.000090    -0.000048    -0.000008
 -0.000090     0.000052    -0.000008
  0.000053    -0.000006    -0.000027
  0.000054    -0.000116    -0.000007
  0.000057     0.000124    -0.000007
 -0.000160     0.000097     0.000003
 -0.000122    -0.000030    -0.000008
 -0.000144     0.000004    -0.000033
 -0.000121     0.000033    -0.000008
 -0.000154    -0.000091     0.000003
  0.000539     0.000001    -0.000060
 -0.000204     0.000018    -0.000048
  0.000140    -0.000006    -0.000057
 -0.000037     0.000021    -0.000008
 -0.000033    -0.000015    -0.000008
  0.000141     0.000008    -0.000055
 -0.000199    -0.000015    -0.000047
  0.192902    -0.001951     0.049633
 -0.003081    -0.022965     0.003275
 -0.004861     0.000620    -0.000060
 -0.000082     0.000026    -0.000058
 -0.004869    -0.000706    -0.000059
 -0.003957     0.022619     0.003294
  0.009663    -0.005970    -0.004040
  0.009629     0.006326    -0.004091
  0.001869    -0.002785    -0.000062
 -0.001948    -0.002732     0.000026
 -0.002022     0.002722     0.000023
  0.001778     0.002925    -0.000056
 -0.000399     0.001856     0.000219
  0.000914     0.000113     0.000494
 -0.000366    -0.001866     0.000230
 -0.001680     0.000936    -0.000059
  0.002738     0.000047     0.000025
 -0.001643    -0.000892    -0.000059
  0.001921     0.000586     0.000220
 -0.003173    -0.001505    -0.000121
 -0.003181     0.001571    -0.000123
  0.001944    -0.000519     0.000228
  0.000390    -0.003996    -0.000061
  0.000366     0.004071    -0.000056
 -0.013552     0.007393    -0.004026
 -0.006804     0.004439     0.000489
 -0.000513     0.000051    -0.000122
 -0.006571    -0.004340     0.000496
 -0.013166    -0.007222    -0.004101
  0.035965     0.000262     0.003285
  0.421545    -0.134226     0.047516
 -0.002873     0.013342    -0.004051
 -0.001287    -0.001369     0.000225
 -0.001346     0.001330     0.000222
 -0.002845    -0.013049    -0.004074
  0.384100     0.108623     0.051440
 -0.000127     0.000377     0.000875
  0.000607     0.000413     0.000018
  0.000008     0.000130     0.000001
  0.000008    -0.000122     0.000001
  0.000593    -0.000394     0.000017
 -0.000148    -0.000349     0.000853
  0.000012    -0.000004    -0.000136
 -0.000090     0.000021     0.000018
  0.000313     0.000194     0.000022
  0.000329     0.000003     0.000011
  0.000320    -0.000197     0.000022
 -0.000075    -0.000026     0.000016
 -0.000005     0.000127     0.000002
 -0.000006    -0.000128     0.000003
  0.000042    -0.000095     0.000001
  0.000075     0.000143     0.000011
  0.000080    -0.000147     0.000011
  0.000043     0.000099     0.000001
  0.000007    -0.000034     0.000004
  0.000110    -0.000001    -0.000002
  0.000007     0.000035     0.000004
  0.000001     0.000081     0.000001
 -0.000022     0.000001     0.000023
 -0.000002    -0.000082     0.000001
  0.000128    -0.000163     0.000003
  0.000146    -0.000020    -0.000002
  0.000145     0.000022    -0.000002
  0.000128     0.000169     0.000003
 -0.000113     0.000781     0.000018
 -0.000109    -0.000781     0.000017
  0.000403    -0.000225    -0.000138
  0.000095     0.000034     0.000003
  0.000066     0.000003     0.000004
  0.000093    -0.000029     0.000003
  0.000398     0.000223    -0.000134
 -0.000766    -0.000007     0.000864

73
0.0182099897933599  0.0000000000000000  0.0082702038503128
  0.192900     0.001928     0.049633
 -0.003077     0.022975     0.003277
 -0.004858    -0.000962    -0.000061
 -0.000084    -0.000024    -0.000059
 -0.004876     0.001054    -0.000058
 -0.003966    -0.022611     0.003292
  0.384086    -0.108602     0.051467
  0.421554     0.134248     0.047489
 -0.002875    -0.013514    -0.004054
 -0.001287     0.001339     0.000226
 -0.001349    -0.001305     0.000220
 -0.002851     0.013213    -0.004071
 -0.013180     0.007056    -0.004100
  0.035965    -0.000248     0.003285
 -0.013542    -0.007224    -0.004027
 -0.006800    -0.004436     0.000489
 -0.000514    -0.000053    -0.000122
 -0.006580     0.004343     0.000497
  0.001944     0.000492     0.000228
  0.000390     0.003660    -0.000061
  0.000363    -0.003719    -0.000057
  0.001917    -0.000559     0.000219
 -0.003173     0.001505    -0.000121
 -0.003184    -0.001573    -0.000123
 -0.000367     0.001893     0.000231
 -0.001685    -0.000934    -0.000057
  0.002735    -0.000041     0.000025
 -0.001642     0.000892    -0.000058
 -0.000400    -0.001882     0.000218
  0.000912    -0.000120     0.000493
  0.009623    -0.006171    -0.004094
  0.001865     0.003130    -0.000063
 -0.001952     0.002735     0.000024
 -0.002024    -0.002718     0.000023
  0.001784    -0.003268    -0.000056
  0.009668     0.005792    -0.004037
 -0.000766    -0.000009     0.000864
  0.000402    -0.000225    -0.000142
  0.000095    -0.000183     0.000002
  0.000069    -0.000000     0.000004
  0.000098     0.000186     0.000003
  0.000402     0.000224    -0.000129
 -0.000140    -0.000360     0.000837
 -0.000131     0.000369     0.000892
  0.000610    -0.000375     0.000019
  0.000010    -0.000079     0.000000
  0.000010     0.000076     0.000001
  0.000594     0.000365     0.000016
 -0.000085    -0.000794     0.000016
  0.000014    -0.000001    -0.000136
 -0.000075     0.000801     0.000018
  0.000325     0.000198     0.000024
  0.000330    -0.000002     0.000011
  0.000311    -0.000195     0.000022
  0.000046    -0.000108     0.000001
 -0.000004    -0.000090     0.000003
 -0.000002     0.000089     0.000003
  0.000044     0.000105     0.000001
  0.000080     0.000149     0.000011
  0.000078    -0.000140     0.000011
  0.000001     0.000121     0.000001
  0.000011    -0.000034     0.000005
  0.000112    -0.000001    -0.000002
  0.000009     0.000034     0.000004
  0.000001    -0.000120     0.000001
 -0.000021     0.000003     0.000022
 -0.000115    -0.000004     0.000018
  0.000127     0.000050     0.000002
  0.000146    -0.000019    -0.000002
  0.000151     0.000023    -0.000001
  0.000131    -0.000052     0.000003
 -0.000104     0.000009     0.000017
 -1.151048    -0.027520    -0.119454
  0.086547    -0.005787    -0.004192
  0.001930     0.001174    -0.000081
  0.003100     0.000022     0.000011
  0.001885    -0.001288    -0.000102
  0.082939     0.005454    -0.003437
 -0.014930    -0.062573    -0.003741
 -0.014773     0.063663    -0.003877
  0.009271     0.003407     0.000549
  0.001844    -0.002175    -0.000040
  0.001739     0.002126    -0.000040
  0.009005    -0.003283     0.000557
 -0.003267    -0.001686    -0.000088
  0.003344     0.000065     0.000554
 -0.003213     0.001795    -0.000093
  0.000167     0.004001    -0.000040
  0.003730     0.000045     0.000032
  0.000156    -0.003948    -0.000041
  0.002222    -0.000481     0.000010
 -0.000592    -0.003516    -0.000040
 -0.000613     0.003549    -0.000039
  0.002206     0.000545     0.000012
 -0.000564    -0.001620    -0.000039
 -0.000641     0.001679    -0.000039
 -0.003244    -0.004225    -0.000079
  0.000104     0.001234    -0.000041
  0.003728     0.000045     0.000031
  0.000218    -0.001186    -0.000038
 -0.003236     0.004186    -0.000104
  0.003346     0.000148     0.000553
 -0.015389    -0.051996    -0.004113
  0.009046    -0.003233     0.000564
  0.001806    -0.003045    -0.000041
  0.001775     0.003019    -0.000039
  0.009237     0.003455     0.000542
 -0.014336     0.051757    -0.003495
  0.000017     0.000085     0.000426
 -0.000003     0.000092     0.000032
 -0.000078     0.000000     0.000005
 -0.000077    -0.000004     0.000004
 -0.000011    -0.000086     0.000029
  0.000005    -0.000092     0.000399
  0.000165     0.000006     0.000413
 -0.000300    -0.000192    -0.000035
 -0.000126    -0.000108    -0.000005
  0.000065    -0.000001     0.000002
 -0.000121     0.000101    -0.000004
 -0.000296     0.000191    -0.000034
  0.000234     0.000044     0.000030
  0.000229    -0.000053     0.000031
 -0.000123    -0.000110    -0.000004
 -0.000429    -0.000124    -0.000003
 -0.000419     0.000109    -0.000003
 -0.000113     0.000104    -0.000004
 -0.000030     0.000021     0.000005
  0.000113    -0.000004     0.000025
 -0.000030    -0.000029     0.000005
  0.000015     0.000025     0.000001
 -0.000221    -0.000008    -0.000003
  0.000011    -0.000033     0.000001
 -0.000034     0.000026     0.000005
 -0.000018     0.000062     0.000015
 -0.000015    -0.000073     0.000015
 -0.000032    -0.000029     0.000004
  0.000061    -0.000006    -0.000003
  0.000062    -0.000002    -0.000004
  0.000079     0.000134     0.000031
 -0.000127     0.000137     0.000026
 -0.000134    -0.000001     0.000015
 -0.000131    -0.000142     0.000025
  0.000075    -0.000141     0.000029
  0.000035    -0.000005    -0.000034

